# vtk DataFile Version 3.0
vtk output
ASCII
DATASET POLYDATA
POINTS 16 float
0.428454 0.405757 0.389601 0.515278 -0.0866474 -0.476425 -0.202967 0.651081 0.186811 
-0.116143 0.158677 -0.679215 -0.515278 0.0866474 0.476425 -0.428454 -0.405757 -0.389601 
0.116143 -0.158677 0.679215 0.202967 -0.651081 -0.186811 0.428454 0.405757 0.389601 
-0.202967 0.651081 0.186811 -0.515278 0.0866474 0.476425 0.116143 -0.158677 0.679215 
0.202967 -0.651081 -0.186811 -0.428454 -0.405757 -0.389601 -0.116143 0.158677 -0.679215 
0.515278 -0.0866474 -0.476425 
POLYGONS 6 30
4 0 1 3 2 
4 2 3 5 4 
4 4 5 7 6 
4 6 7 1 0 
4 8 9 10 11 
4 12 13 14 15 

POINT_DATA 16
SCALARS value float
LOOKUP_TABLE default
0 1 2 3 0 1 2 3 0 1 
2 3 0 1 2 3
