# vtk DataFile Version 3.0
vtk output
ASCII
DATASET POLYDATA
POINTS 10 float
31.167 58.9079 50 58.4897 88.461 53 72.151 83.7214 50 
76.0543 65.0416 53 74.1027 45.8041 50 -31.167 58.9079 20 
-58.4897 88.461 13 -72.151 83.7214 40 -76.0543 65.0416 13 
-74.1027 45.8041 20 
LINES 2 12
5 0 1 2 3 4 
5 5 6 7 8 9 

CELL_DATA 2
SCALARS value float
LOOKUP_TABLE default
1 2
POINT_DATA 10
SCALARS value float
LOOKUP_TABLE default
1 2 3 4 5 6 7 8 9 
10 
