# vtk DataFile Version 3.0
vtk output
ASCII
DATASET POLYDATA
POINTS 5 float
31.167 58.9079 53.75 58.4897 88.461 53 72.151 83.7214 53 
76.0543 65.0416 53 74.1027 45.8041 53 
LINES 4 12
2 0 1 
2 1 2 
2 2 3 
2 3 4 

CELL_DATA 4
POINT_DATA 5
SCALARS value float
LOOKUP_TABLE default
1 2 3 4 5
