# vtk DataFile Version 3.0
vtk output
ASCII
DATASET POLYDATA
POINTS 16 float
0.428454 0.405757 0.389601 0.515278 -0.0866474 -0.476425 -0.202967 0.651081 0.186811 
-0.116143 0.158677 -0.679215 -0.515278 0.0866474 0.476425 -0.428454 -0.405757 -0.389601 
0.116143 -0.158677 0.679215 0.202967 -0.651081 -0.186811 0.428454 0.405757 0.389601 
-0.202967 0.651081 0.186811 -0.515278 0.0866474 0.476425 0.116143 -0.158677 0.679215 
0.202967 -0.651081 -0.186811 -0.428454 -0.405757 -0.389601 -0.116143 0.158677 -0.679215 
0.515278 -0.0866474 -0.476425 
POLYGONS 6 30
4 0 1 3 2 
4 2 3 5 4 
4 4 5 7 6 
4 6 7 1 0 
4 8 9 10 11 
4 12 13 14 15 

CELL_DATA 6
NORMALS normals float
0.441675 0.79823 -0.409576 -0.892964 0.34694 -0.286788 -0.441675 -0.79823 0.409576 
0.892964 -0.34694 0.286788 -0.0868244 0.492404 0.866025 0.0868244 -0.492404 -0.866025 

POINT_DATA 16
SCALARS value float
LOOKUP_TABLE default
1 2 3 4 5 6 7 8 9 
10 11 12 13 14 15 16 
NORMALS normals float
0.943732 0.31911 -0.0868245 0.943732 0.31911 -0.0868245 -0.31911 0.809758 -0.492404 
-0.31911 0.809758 -0.492404 -0.943732 -0.31911 0.0868245 -0.943732 -0.31911 0.0868245 
0.31911 -0.809758 0.492404 0.31911 -0.809758 0.492404 -0.0868244 0.492404 0.866025 
-0.0868244 0.492404 0.866025 -0.0868244 0.492404 0.866025 -0.0868244 0.492404 0.866025 
0.0868244 -0.492404 -0.866025 0.0868244 -0.492404 -0.866025 0.0868244 -0.492404 -0.866025 
0.0868244 -0.492404 -0.866025 
TEXTURE_COORDINATES TCoords 2 float
1 0 1 1 0.5 0 0.5 1 0 
0 0 1 0.5 0 0.5 1 0.5 0 
-1.02552e-010 -0.5 -0.5 2.05103e-010 3.07655e-010 0.5 3.07655e-010 0.5 -0.5 
2.05103e-010 -1.02552e-010 -0.5 0.5 0 
