# vtk DataFile Version 3.0
vtk output
ASCII
DATASET UNSTRUCTURED_GRID
FIELD FieldData 4
material_id 1 2 double
2 3 
EX 1 2 double
1000 200000 
NUXY 1 2 double
0.3 0.33 
DENS 1 2 double
0.107 1.07 
POINTS 12 float
0 0 0 1 0 0 0 1 0 
0 0 1 1 1 1 2 1 0 
2 0 1 2 0 0 0 1 1 
2 1 1 1 1 0 1 0 1 

CELLS 2 18
8 1 7 5 10 11 6 9 4 
8 0 3 11 1 2 8 4 10 

CELL_TYPES 2
12
12

CELL_DATA 2
SCALARS material int
LOOKUP_TABLE default
2 3 
FIELD FieldData 3
EX 1 2 double
1000 200000 
NUXY 1 2 double
0.3 0.33 
DENS 1 2 double
0.107 1.07 
POINT_DATA 12
SCALARS id int
LOOKUP_TABLE default
1 2 3 4 5 6 7 8 9 
10 11 12 
