# vtk DataFile Version 3.0
vtk output
ASCII
DATASET RECTILINEAR_GRID
DIMENSIONS 3 3 2
X_COORDINATES 3 float
0 1 2

Y_COORDINATES 3 float
0 1 2

Z_COORDINATES 2 float
0 1

CELL_DATA 4
POINT_DATA 18
SCALARS scalars short
LOOKUP_TABLE default
2 2 2
2 0 2
2 2 2
0 0 0
0 2 0 
0 0 0


