# vtk DataFile Version 3.0
vtk output
ASCII
DATASET RECTILINEAR_GRID
DIMENSIONS 10 10 10
X_COORDINATES 10 double
1 2 3 4 5 6 7 8 9 
10 
Y_COORDINATES 10 double
1 2 3 4 5 6 7 8 9 
10 
Z_COORDINATES 10 double
1 2 3 4 5 6 7 8 9 
10 
CELL_DATA 729
POINT_DATA 1000
SCALARS scalars short
LOOKUP_TABLE default
1 1 1 1 1 1 1 1 1 
1 2 2 2 2 2 2 2 2 
2 2 3 3 3 3 3 3 3 
3 3 3 4 4 4 4 4 4 
4 4 4 4 5 5 5 5 5 
5 5 5 5 5 6 6 6 6 
6 6 6 6 6 6 7 7 7 
7 7 7 7 7 7 7 8 8 
8 8 8 8 8 8 8 8 9 
9 9 9 9 9 9 9 9 9 
10 10 10 10 10 10 10 10 10 
10 1 1 1 1 1 1 1 1 
1 1 2 2 2 2 2 2 2 
2 2 2 3 3 3 3 3 3 
3 3 3 3 4 4 4 4 4 
4 4 4 4 4 5 5 5 5 
5 5 5 5 5 5 6 6 6 
6 6 6 6 6 6 6 7 7 
7 7 7 7 7 7 7 7 8 
8 8 8 8 8 8 8 8 8 
9 9 9 9 9 9 9 9 9 
9 10 10 10 10 10 10 10 10 
10 10 1 1 1 1 1 1 1 
1 1 1 2 2 2 2 2 2 
2 2 2 2 3 3 3 3 3 
3 3 3 3 3 4 4 4 4 
4 4 4 4 4 4 5 5 5 
5 5 5 5 5 5 5 6 6 
6 6 6 6 6 6 6 6 7 
7 7 7 7 7 7 7 7 7 
8 8 8 8 8 8 8 8 8 
8 9 9 9 9 9 9 9 9 
9 9 10 10 10 10 10 10 10 
10 10 10 1 1 1 1 1 1 
1 1 1 1 2 2 2 2 2 
2 2 2 2 2 3 3 3 3 
3 3 3 3 3 3 4 4 4 
4 4 4 4 4 4 4 5 5 
5 5 5 5 5 5 5 5 6 
6 6 6 6 6 6 6 6 6 
7 7 7 7 7 7 7 7 7 
7 8 8 8 8 8 8 8 8 
8 8 9 9 9 9 9 9 9 
9 9 9 10 10 10 10 10 10 
10 10 10 10 1 1 1 1 1 
1 1 1 1 1 2 2 2 2 
2 2 2 2 2 2 3 3 3 
3 3 3 3 3 3 3 4 4 
4 4 4 4 4 4 4 4 5 
5 5 5 5 5 5 5 5 5 
6 6 6 6 6 6 6 6 6 
6 7 7 7 7 7 7 7 7 
7 7 8 8 8 8 8 8 8 
8 8 8 9 9 9 9 9 9 
9 9 9 9 10 10 10 10 10 
10 10 10 10 10 1 1 1 1 
1 1 1 1 1 1 2 2 2 
2 2 2 2 2 2 2 3 3 
3 3 3 3 3 3 3 3 4 
4 4 4 4 4 4 4 4 4 
5 5 5 5 5 5 5 5 5 
5 6 6 6 6 6 6 6 6 
6 6 7 7 7 7 7 7 7 
7 7 7 8 8 8 8 8 8 
8 8 8 8 9 9 9 9 9 
9 9 9 9 9 10 10 10 10 
10 10 10 10 10 10 1 1 1 
1 1 1 1 1 1 1 2 2 
2 2 2 2 2 2 2 2 3 
3 3 3 3 3 3 3 3 3 
4 4 4 4 4 4 4 4 4 
4 5 5 5 5 5 5 5 5 
5 5 6 6 6 6 6 6 6 
6 6 6 7 7 7 7 7 7 
7 7 7 7 8 8 8 8 8 
8 8 8 8 8 9 9 9 9 
9 9 9 9 9 9 10 10 10 
10 10 10 10 10 10 10 1 1 
1 1 1 1 1 1 1 1 2 
2 2 2 2 2 2 2 2 2 
3 3 3 3 3 3 3 3 3 
3 4 4 4 4 4 4 4 4 
4 4 5 5 5 5 5 5 5 
5 5 5 6 6 6 6 6 6 
6 6 6 6 7 7 7 7 7 
7 7 7 7 7 8 8 8 8 
8 8 8 8 8 8 9 9 9 
9 9 9 9 9 9 9 10 10 
10 10 10 10 10 10 10 10 1 
1 1 1 1 1 1 1 1 1 
2 2 2 2 2 2 2 2 2 
2 3 3 3 3 3 3 3 3 
3 3 4 4 4 4 4 4 4 
4 4 4 5 5 5 5 5 5 
5 5 5 5 6 6 6 6 6 
6 6 6 6 6 7 7 7 7 
7 7 7 7 7 7 8 8 8 
8 8 8 8 8 8 8 9 9 
9 9 9 9 9 9 9 9 10 
10 10 10 10 10 10 10 10 10 
1 1 1 1 1 1 1 1 1 
1 2 2 2 2 2 2 2 2 
2 2 3 3 3 3 3 3 3 
3 3 3 4 4 4 4 4 4 
4 4 4 4 5 5 5 5 5 
5 5 5 5 5 6 6 6 6 
6 6 6 6 6 6 7 7 7 
7 7 7 7 7 7 7 8 8 
8 8 8 8 8 8 8 8 9 
9 9 9 9 9 9 9 9 9 
10 10 10 10 10 10 10 10 10 
10 
