# vtk DataFile Version 3.0
vtk output
ASCII
DATASET UNSTRUCTURED_GRID
POINTS 57 float
112.442 181.819 -26.279 111.093 182.579 -26.5752 113.118 178.804 -32.0301 
111.34 180.296 -32.7583 112.679 177.576 -30.7565 112.294 178.083 -32.1784 
112.31 180.543 -32.4712 110.918 181.528 -31.7774 111.827 178.648 -30.5669 
111.443 179.155 -31.9888 110.05 180.139 -31.295 111.004 177.926 -30.7152 
110.071 180.826 -29.6829 111.02 180.387 -31.008 112.785 179.206 -29.2987 
111.11 179.557 -29.2575 113.95 179.236 -30.6136 113.565 179.743 -32.0355 
113.143 180.975 -31.0546 112.275 179.586 -30.5723 113.232 180.145 -29.3041 
111.067 182.285 -28.7037 112.016 181.846 -30.0288 111.149 180.457 -29.5464 
112.106 181.016 -28.2783 113.271 181.045 -29.5931 110.146 181.711 -28.243 
110.227 179.883 -29.0857 111.185 180.442 -27.8176 111.223 181.342 -28.1066 
112.297 178.464 -29.0632 111.474 177.743 -29.2115 110.622 178.815 -29.0219 
111.579 179.374 -27.7538 113.357 178.184 -28.8833 112.533 177.462 -29.0316 
112.639 179.093 -27.5739 112.151 178.351 -27.3384 111.58 181.347 -27.2822 
111.619 182.247 -27.5712 110.697 181.673 -27.1105 112.255 180.967 -27.1341 
112.294 181.867 -27.4231 111.767 182.199 -26.4271 113.211 178.07 -27.1584 
111.092 178.632 -27.5183 110.302 180.768 -27.6459 112.145 181.916 -28.5673 
114.398 180.174 -30.6189 112.067 180.116 -27.9893 110.152 178.998 -30.5256 
111.888 181.775 -31.4904 109.989 182.654 -28.8402 111.855 176.854 -30.9047 
109.947 181.28 -32.0645 112.733 179.311 -33.452 113.502 178.297 -30.6082 

CELLS 15 165
10 49 1 47 46 38 39 24 28 40 29 
10 49 1 0 47 38 43 41 24 39 42 
10 56 50 49 48 8 15 14 16 19 20 
10 50 48 47 49 19 25 23 15 20 24 
10 55 56 50 53 2 8 9 5 4 11 
10 50 47 46 49 23 29 27 15 24 28 
10 55 50 48 51 9 19 17 6 13 18 
10 55 56 48 50 2 16 17 9 8 19 
10 50 52 46 47 12 26 27 23 21 29 
10 56 45 49 50 30 33 14 8 32 15 
10 56 45 44 49 30 37 34 14 33 36 
10 50 48 51 47 19 18 13 23 25 22 
10 56 45 50 53 30 32 8 4 31 11 
10 56 45 53 44 30 31 4 34 37 35 
10 54 50 55 51 10 9 3 7 13 6 

CELL_TYPES 15
24
24
24
24
24
24
24
24
24
24
24
24
24
24
24

CELL_DATA 15
SCALARS material int
LOOKUP_TABLE default
419 419 419 419 419 419 419 419 419 
419 419 419 419 419 419 
FIELD FieldData 3
ANSYS_ELEMENT_ID 1 15 int
38714 38842 40241 40639 41049 41430 41670 41871 41995 
42142 42788 45054 45194 49445 49740 
ANSYS_ELEMENT_TYPE 1 15 int
419 419 425 426 427 429 430 431 431 
431 433 440 440 450 451 
ANSYS_ELEMENT_REAL 1 15 int
419 419 425 426 427 429 430 431 431 
431 433 440 440 450 451 
POINT_DATA 57
SCALARS id int
LOOKUP_TABLE default
6593 6630 14652 17476 19314 19316 23927 23929 25279 
25282 25284 25286 25287 25288 25711 25712 28974 28975 
28979 28980 28981 31820 31821 31822 31823 31824 33274 
33275 33276 33278 39597 39598 39599 39600 52000 52001 
52004 52007 73169 73170 73171 73401 73402 73408 116148 
117974 119190 119508 120002 120575 120641 120873 121095 121841 
122188 122761 123385 
